<?xml version="1.0"?>
<VTKFile type="UnstructuredGrid" version="0.1" byte_order="LittleEndian">
<UnstructuredGrid>
<Piece NumberOfPoints="    6" NumberOfCells="    2">
<Points>
<DataArray type="Float32" NumberOfComponents="3" format="ascii">
   0.00000000       0.00000000       0.00000000       1.00000000       0.00000000       0.00000000       0.00000000       1.00000000       0.00000000       1.00000000       0.00000000       0.00000000       0.00000000       1.00000000       0.00000000       1.00000000       1.00000000       0.00000000    
</DataArray>
</Points>
<Cells>
<DataArray type="Int32" Name="connectivity" Format="ascii">
           0           1           2           3           4           5
</DataArray>
<DataArray type="Int32" Name="offsets" Format="ascii">
           3           6
</DataArray>
<DataArray type="Int32" Name="types" Format="ascii">
           5           5
</DataArray></Cells>
<PointData Scalars="scalars">
<DataArray type="Float32" Name="pressure" Format="ascii">
   2.00000000       3.00000000       4.00000000       3.00000000       4.00000000       5.00000000    
</DataArray>
<DataArray type="Float32" Name="velocity" NumberOfComponents="3" Format="ascii">
   3.00000000       4.00000000       5.00000000       4.00000000       5.00000000       6.00000000       5.00000000       6.00000000       7.00000000       4.00000000       5.00000000       6.00000000       5.00000000       6.00000000       7.00000000       6.00000000       7.00000000       8.00000000    
</DataArray>
</PointData>
</Piece>
</UnstructuredGrid>
</VTKFile>
